---
title: "R Notebook"
output: html_notebook
---

```{r install, include=FALSE}
library(here)
library(lme4)
library(tidyverse)
library(readxl)
library(ggplot2)
library(plotly)
library(lmtest)
library(glmmLasso)
library(MASS)
```


# Repeat: Validate Output in R

- Fist Read in Data

```{r import}
# Filepaths
root=here()

# Import Data
chalk = read.csv(paste0(root,"/Data/Processed/Chalk.csv"))
chalk = chalk %>% mutate(
  used = as.factor(ifelse(Chalk==0,0,1)),
  bChalk = as.factor(ifelse(Chalk==0,0,bChalk)),
  Day = as.Date(Day),
  Daydisc = as.factor(Day),
  Pinch_Order = as.factor(Pinch_Order),
  Day_Order = as.factor(Day_Order)
)
```


- Then Check Assumptions, treating Used Chalk instead of bChalk to Get more Balance
```{r}
# Quick lme4 check of AIC
# Check Full Model 
byUsed = lmer(Pull~log(Pinch)*used*Person + (1|Daydisc) + (1|Daydisc:Day_Order),
              data = chalk,
              REML = FALSE)

noDate = lm(Pull~Pinch*used*Person ,data=chalk)

# Compare AIC
AIC(noDate)
AIC(byUsed)
delta = AIC(byUsed) - AIC(noDate)
delta
# Delta AIC is very Large, so date is significant

# Heteroscedasticity
####################
####################
####################
####################
fig = plot_ly(
  x = chalk$Pull,
  y = residuals(byUsed)
) 

fig <- fig %>% layout(title = "Residuals by Pull",
                      xaxis = list(title="Pull"),
                      yxis = list("Residuals")
                      )

fig

# Evaluating Variance Relationship
breaks = c(-Inf,2,2.5,3,3.5,4,4.5,5,6.6,Inf)
hetero = chalk %>% mutate(
  groupedPinch = cut(Pinch,breaks=breaks,right=FALSE)
) 

hetero = hetero %>% group_by(groupedPinch) %>% summarize(
  mean = mean(Pull),
  var = var(Pull)
)
plot(hetero$mean,hetero$var)
# x squared relationship

# Residuals Very flared, heteroscedastic

# Normality
###########
###########
###########
###########

# Generate a Q-Q plot of the residuals
qqnorm(residuals(byUsed))

# Add a Q-Q line to the plot with specific color and line width
qqline(residuals(byUsed), col = "turquoise", lwd = 2)

shapiro.test(residuals(byUsed))

# Again, Data not normal
```

- Next we fit a relativley complex model to try to deal w the problems as best as possible
```{r complex}

test = glmer(Pull~Pinch*used*Person + (1|Daydisc) + (1|Daydisc:Day_Order),
              data = chalk,
             family = Gamma(link="log"))


# Variable Selection
chalk$DayorderxDaydisc = interaction(chalk$Daydisc,chalk$Day_Order)

initial = glmmLasso(fix = Pull~Pinch + bChalk + Person,
                    rnd = list(Daydisc=~1,DayorderxDaydisc=~1),
                    data = chalk,
                    lambda=10,
                    family=Gamma(link="log")
                    )
```

